# vtk DataFile Version 2.0
Boundary condition example
ASCII
DATASET STRUCTURED_POINTS
DIMENSIONS 5 2 2
SPACING 0.25 1.0 1.0
ORIGIN 0 0 0
POINT_DATA 20
SCALARS bc_data float 1
LOOKUP_TABLE default
1 2 3 4 5 6 7 8 9 10
10 9 8 7 6 5 4 3 2 1